nqpoint: 204    
npath: 4      
segment_nqpoint:
- 51
- 51
- 51
- 51
reciprocal_lattice:
- [  -0.12740882,   0.12740882,   0.12740882 ] # a*
- [   0.12740882,  -0.12740882,   0.12740882 ] # b*
- [   0.12740882,   0.12740882,  -0.12740882 ] # c*
natom: 2      
lattice:
- [     0.000000012904840,     3.924375091835441,     3.924375091465734 ] # a
- [     3.924375091465734,     0.000000012904840,     3.924375091835441 ] # b
- [     3.924375091835441,     3.924375091465734,     0.000000012904840 ] # c
points:
- symbol: Cs # 1
  coordinates: [  0.000000000000000,  0.000000000000000,  0.000000000000000 ]
  mass: 132.905452
- symbol: I  # 2
  coordinates: [  0.500000000000000,  0.500000000000000,  0.500000000000000 ]
  mass: 126.904470

phonon:
- q-position: [    0.5000000,    0.5000000,    0.5000000 ]
  distance:    0.0000000
  band:
  - # 1
    frequency:    1.1600743294
  - # 2
    frequency:    1.1600743294
  - # 3
    frequency:    1.2972051883
  - # 4
    frequency:    1.2972051883
  - # 5
    frequency:    1.7113138294
  - # 6
    frequency:    1.7914471629

- q-position: [    0.4900000,    0.4900000,    0.4900000 ]
  distance:    0.0022068
  band:
  - # 1
    frequency:    1.1571758903
  - # 2
    frequency:    1.1571758903
  - # 3
    frequency:    1.2998798712
  - # 4
    frequency:    1.2998798712
  - # 5
    frequency:    1.7057115139
  - # 6
    frequency:    1.7960899360

- q-position: [    0.4800000,    0.4800000,    0.4800000 ]
  distance:    0.0044136
  band:
  - # 1
    frequency:    1.1490677246
  - # 2
    frequency:    1.1490677246
  - # 3
    frequency:    1.3073144493
  - # 4
    frequency:    1.3073144493
  - # 5
    frequency:    1.6915794701
  - # 6
    frequency:    1.8073430704

- q-position: [    0.4700000,    0.4700000,    0.4700000 ]
  distance:    0.0066204
  band:
  - # 1
    frequency:    1.1370246685
  - # 2
    frequency:    1.1370246685
  - # 3
    frequency:    1.3182271685
  - # 4
    frequency:    1.3182271685
  - # 5
    frequency:    1.6727366136
  - # 6
    frequency:    1.8213868241

- q-position: [    0.4600000,    0.4600000,    0.4600000 ]
  distance:    0.0088271
  band:
  - # 1
    frequency:    1.1222616474
  - # 2
    frequency:    1.1222616474
  - # 3
    frequency:    1.3313917001
  - # 4
    frequency:    1.3313917001
  - # 5
    frequency:    1.6512130441
  - # 6
    frequency:    1.8361897901

- q-position: [    0.4500000,    0.4500000,    0.4500000 ]
  distance:    0.0110339
  band:
  - # 1
    frequency:    1.1056441694
  - # 2
    frequency:    1.1056441694
  - # 3
    frequency:    1.3459268373
  - # 4
    frequency:    1.3459268373
  - # 5
    frequency:    1.6279061054
  - # 6
    frequency:    1.8508529401

- q-position: [    0.4400000,    0.4400000,    0.4400000 ]
  distance:    0.0132407
  band:
  - # 1
    frequency:    1.0877246056
  - # 2
    frequency:    1.0877246056
  - # 3
    frequency:    1.3612604743
  - # 4
    frequency:    1.3612604743
  - # 5
    frequency:    1.6032387055
  - # 6
    frequency:    1.8649514504

- q-position: [    0.4300000,    0.4300000,    0.4300000 ]
  distance:    0.0154475
  band:
  - # 1
    frequency:    1.0688461878
  - # 2
    frequency:    1.0688461878
  - # 3
    frequency:    1.3770259375
  - # 4
    frequency:    1.3770259375
  - # 5
    frequency:    1.5774345762
  - # 6
    frequency:    1.8782596276

- q-position: [    0.4200000,    0.4200000,    0.4200000 ]
  distance:    0.0176543
  band:
  - # 1
    frequency:    1.0492241563
  - # 2
    frequency:    1.0492241563
  - # 3
    frequency:    1.3929812295
  - # 4
    frequency:    1.3929812295
  - # 5
    frequency:    1.5506266817
  - # 6
    frequency:    1.8906427266

- q-position: [    0.4100000,    0.4100000,    0.4100000 ]
  distance:    0.0198611
  band:
  - # 1
    frequency:    1.0289966567
  - # 2
    frequency:    1.0289966567
  - # 3
    frequency:    1.4089585804
  - # 4
    frequency:    1.4089585804
  - # 5
    frequency:    1.5229029687
  - # 6
    frequency:    1.9020114654

- q-position: [    0.4000000,    0.4000000,    0.4000000 ]
  distance:    0.0220679
  band:
  - # 1
    frequency:    1.0082549178
  - # 2
    frequency:    1.0082549178
  - # 3
    frequency:    1.4248347710
  - # 4
    frequency:    1.4248347710
  - # 5
    frequency:    1.4943274013
  - # 6
    frequency:    1.9123012932

- q-position: [    0.3900000,    0.3900000,    0.3900000 ]
  distance:    0.0242746
  band:
  - # 1
    frequency:    0.9870611060
  - # 2
    frequency:    0.9870611060
  - # 3
    frequency:    1.4405138221
  - # 4
    frequency:    1.4405138221
  - # 5
    frequency:    1.4649504206
  - # 6
    frequency:    1.9214622697

- q-position: [    0.3800000,    0.3800000,    0.3800000 ]
  distance:    0.0264814
  band:
  - # 1
    frequency:    0.9654590835
  - # 2
    frequency:    0.9654590835
  - # 3
    frequency:    1.4348145034
  - # 4
    frequency:    1.4559168171
  - # 5
    frequency:    1.4559168171
  - # 6
    frequency:    1.9294538818

- q-position: [    0.3700000,    0.3700000,    0.3700000 ]
  distance:    0.0286882
  band:
  - # 1
    frequency:    0.9434810556
  - # 2
    frequency:    0.9434810556
  - # 3
    frequency:    1.4039572797
  - # 4
    frequency:    1.4709758640
  - # 5
    frequency:    1.4709758640
  - # 6
    frequency:    1.9362423329

- q-position: [    0.3600000,    0.3600000,    0.3600000 ]
  distance:    0.0308950
  band:
  - # 1
    frequency:    0.9211517823
  - # 2
    frequency:    0.9211517823
  - # 3
    frequency:    1.3724133573
  - # 4
    frequency:    1.4856305140
  - # 5
    frequency:    1.4856305140
  - # 6
    frequency:    1.9417991561

- q-position: [    0.3500000,    0.3500000,    0.3500000 ]
  distance:    0.0331018
  band:
  - # 1
    frequency:    0.8984913059
  - # 2
    frequency:    0.8984913059
  - # 3
    frequency:    1.3402154209
  - # 4
    frequency:    1.4998256753
  - # 5
    frequency:    1.4998256753
  - # 6
    frequency:    1.9461005825

- q-position: [    0.3400000,    0.3400000,    0.3400000 ]
  distance:    0.0353086
  band:
  - # 1
    frequency:    0.8755167473
  - # 2
    frequency:    0.8755167473
  - # 3
    frequency:    1.3073949031
  - # 4
    frequency:    1.5135104629
  - # 5
    frequency:    1.5135104629
  - # 6
    frequency:    1.9491273610

- q-position: [    0.3300000,    0.3300000,    0.3300000 ]
  distance:    0.0375154
  band:
  - # 1
    frequency:    0.8522434969
  - # 2
    frequency:    0.8522434969
  - # 3
    frequency:    1.2739823919
  - # 4
    frequency:    1.5266376485
  - # 5
    frequency:    1.5266376485
  - # 6
    frequency:    1.9508648643

- q-position: [    0.3200000,    0.3200000,    0.3200000 ]
  distance:    0.0397221
  band:
  - # 1
    frequency:    0.8286860023
  - # 2
    frequency:    0.8286860023
  - # 3
    frequency:    1.2400078699
  - # 4
    frequency:    1.5391635014
  - # 5
    frequency:    1.5391635014
  - # 6
    frequency:    1.9513033822

- q-position: [    0.3100000,    0.3100000,    0.3100000 ]
  distance:    0.0419289
  band:
  - # 1
    frequency:    0.8048582784
  - # 2
    frequency:    0.8048582784
  - # 3
    frequency:    1.2055008410
  - # 4
    frequency:    1.5510478858
  - # 5
    frequency:    1.5510478858
  - # 6
    frequency:    1.9504385395

- q-position: [    0.3000000,    0.3000000,    0.3000000 ]
  distance:    0.0441357
  band:
  - # 1
    frequency:    0.7807742239
  - # 2
    frequency:    0.7807742239
  - # 3
    frequency:    1.1704903824
  - # 4
    frequency:    1.5622545249
  - # 5
    frequency:    1.5622545249
  - # 6
    frequency:    1.9482717994

- q-position: [    0.2900000,    0.2900000,    0.2900000 ]
  distance:    0.0463425
  band:
  - # 1
    frequency:    0.7564477976
  - # 2
    frequency:    0.7564477976
  - # 3
    frequency:    1.1350051435
  - # 4
    frequency:    1.5727513675
  - # 5
    frequency:    1.5727513675
  - # 6
    frequency:    1.9448110221

- q-position: [    0.2800000,    0.2800000,    0.2800000 ]
  distance:    0.0485493
  band:
  - # 1
    frequency:    0.7318930953
  - # 2
    frequency:    0.7318930953
  - # 3
    frequency:    1.0990733115
  - # 4
    frequency:    1.5825110130
  - # 5
    frequency:    1.5825110130
  - # 6
    frequency:    1.9400710557

- q-position: [    0.2700000,    0.2700000,    0.2700000 ]
  distance:    0.0507561
  band:
  - # 1
    frequency:    0.7071243540
  - # 2
    frequency:    0.7071243540
  - # 3
    frequency:    1.0627225515
  - # 4
    frequency:    1.5915111581
  - # 5
    frequency:    1.5915111581
  - # 6
    frequency:    1.9340743413

- q-position: [    0.2600000,    0.2600000,    0.2600000 ]
  distance:    0.0529629
  band:
  - # 1
    frequency:    0.6821559057
  - # 2
    frequency:    0.6821559057
  - # 3
    frequency:    1.0259799340
  - # 4
    frequency:    1.5997350388
  - # 5
    frequency:    1.5997350388
  - # 6
    frequency:    1.9268515149

- q-position: [    0.2500000,    0.2500000,    0.2500000 ]
  distance:    0.0551696
  band:
  - # 1
    frequency:    0.6570020955
  - # 2
    frequency:    0.6570020955
  - # 3
    frequency:    0.9888718538
  - # 4
    frequency:    1.6071718439
  - # 5
    frequency:    1.6071718439
  - # 6
    frequency:    1.9184419895

- q-position: [    0.2400000,    0.2400000,    0.2400000 ]
  distance:    0.0573764
  band:
  - # 1
    frequency:    0.6316771785
  - # 2
    frequency:    0.6316771785
  - # 3
    frequency:    0.9514239470
  - # 4
    frequency:    1.6138170821
  - # 5
    frequency:    1.6138170821
  - # 6
    frequency:    1.9088945027

- q-position: [    0.2300000,    0.2300000,    0.2300000 ]
  distance:    0.0595832
  band:
  - # 1
    frequency:    0.6061952039
  - # 2
    frequency:    0.6061952039
  - # 3
    frequency:    0.9136610112
  - # 4
    frequency:    1.6196728857
  - # 5
    frequency:    1.6196728857
  - # 6
    frequency:    1.8982676124

- q-position: [    0.2200000,    0.2200000,    0.2200000 ]
  distance:    0.0617900
  band:
  - # 1
    frequency:    0.5805698964
  - # 2
    frequency:    0.5805698964
  - # 3
    frequency:    0.8756069305
  - # 4
    frequency:    1.6247482364
  - # 5
    frequency:    1.6247482364
  - # 6
    frequency:    1.8866301233

- q-position: [    0.2100000,    0.2100000,    0.2100000 ]
  distance:    0.0639968
  band:
  - # 1
    frequency:    0.5548145410
  - # 2
    frequency:    0.5548145410
  - # 3
    frequency:    0.8372846099
  - # 4
    frequency:    1.6290591010
  - # 5
    frequency:    1.6290591010
  - # 6
    frequency:    1.8740614264

- q-position: [    0.2000000,    0.2000000,    0.2000000 ]
  distance:    0.0662036
  band:
  - # 1
    frequency:    0.5289418761
  - # 2
    frequency:    0.5289418761
  - # 3
    frequency:    0.7987159199
  - # 4
    frequency:    1.6326284670
  - # 5
    frequency:    1.6326284670
  - # 6
    frequency:    1.8606517317

- q-position: [    0.1900000,    0.1900000,    0.1900000 ]
  distance:    0.0684104
  band:
  - # 1
    frequency:    0.5029640001
  - # 2
    frequency:    0.5029640001
  - # 3
    frequency:    0.7599216541
  - # 4
    frequency:    1.6354862673
  - # 5
    frequency:    1.6354862673
  - # 6
    frequency:    1.8465021713

- q-position: [    0.1800000,    0.1800000,    0.1800000 ]
  distance:    0.0706171
  band:
  - # 1
    frequency:    0.4768922944
  - # 2
    frequency:    0.4768922944
  - # 3
    frequency:    0.7209214993
  - # 4
    frequency:    1.6376691885
  - # 5
    frequency:    1.6376691885
  - # 6
    frequency:    1.8317247515

- q-position: [    0.1700000,    0.1700000,    0.1700000 ]
  distance:    0.0728239
  band:
  - # 1
    frequency:    0.4507373641
  - # 2
    frequency:    0.4507373641
  - # 3
    frequency:    0.6817340200
  - # 4
    frequency:    1.6392203554
  - # 5
    frequency:    1.6392203554
  - # 6
    frequency:    1.8164421281

- q-position: [    0.1600000,    0.1600000,    0.1600000 ]
  distance:    0.0750307
  band:
  - # 1
    frequency:    0.4245089993
  - # 2
    frequency:    0.4245089993
  - # 3
    frequency:    0.6423766558
  - # 4
    frequency:    1.6401888905
  - # 5
    frequency:    1.6401888905
  - # 6
    frequency:    1.8007871794

- q-position: [    0.1500000,    0.1500000,    0.1500000 ]
  distance:    0.0772375
  band:
  - # 1
    frequency:    0.3982161559
  - # 2
    frequency:    0.3982161559
  - # 3
    frequency:    0.6028657333
  - # 4
    frequency:    1.6406293448
  - # 5
    frequency:    1.6406293448
  - # 6
    frequency:    1.7849023512

- q-position: [    0.1400000,    0.1400000,    0.1400000 ]
  distance:    0.0794443
  band:
  - # 1
    frequency:    0.3718669553
  - # 2
    frequency:    0.3718669553
  - # 3
    frequency:    0.5632164901
  - # 4
    frequency:    1.6406010042
  - # 5
    frequency:    1.6406010042
  - # 6
    frequency:    1.7689387464

- q-position: [    0.1300000,    0.1300000,    0.1300000 ]
  distance:    0.0816511
  band:
  - # 1
    frequency:    0.3454687040
  - # 2
    frequency:    0.3454687040
  - # 3
    frequency:    0.5234431103
  - # 4
    frequency:    1.6401670746
  - # 5
    frequency:    1.6401670746
  - # 6
    frequency:    1.7530549384

- q-position: [    0.1200000,    0.1200000,    0.1200000 ]
  distance:    0.0838578
  band:
  - # 1
    frequency:    0.3190279277
  - # 2
    frequency:    0.3190279277
  - # 3
    frequency:    0.4835587714
  - # 4
    frequency:    1.6393937535
  - # 5
    frequency:    1.6393937535
  - # 6
    frequency:    1.7374154867

- q-position: [    0.1100000,    0.1100000,    0.1100000 ]
  distance:    0.0860646
  band:
  - # 1
    frequency:    0.2925504208
  - # 2
    frequency:    0.2925504208
  - # 3
    frequency:    0.4435756994
  - # 4
    frequency:    1.6383492013
  - # 5
    frequency:    1.6383492013
  - # 6
    frequency:    1.7221891426

- q-position: [    0.1000000,    0.1000000,    0.1000000 ]
  distance:    0.0882714
  band:
  - # 1
    frequency:    0.2660413064
  - # 2
    frequency:    0.2660413064
  - # 3
    frequency:    0.4035052319
  - # 4
    frequency:    1.6371024259
  - # 5
    frequency:    1.6371024259
  - # 6
    frequency:    1.7075467444

- q-position: [    0.0900000,    0.0900000,    0.0900000 ]
  distance:    0.0904782
  band:
  - # 1
    frequency:    0.2395051045
  - # 2
    frequency:    0.2395051045
  - # 3
    frequency:    0.3633578874
  - # 4
    frequency:    1.6357221009
  - # 5
    frequency:    1.6357221009
  - # 6
    frequency:    1.6936588102

- q-position: [    0.0800000,    0.0800000,    0.0800000 ]
  distance:    0.0926850
  band:
  - # 1
    frequency:    0.2129458048
  - # 2
    frequency:    0.2129458048
  - # 3
    frequency:    0.3231434387
  - # 4
    frequency:    1.6342753397
  - # 5
    frequency:    1.6342753397
  - # 6
    frequency:    1.6806928577

- q-position: [    0.0700000,    0.0700000,    0.0700000 ]
  distance:    0.0948918
  band:
  - # 1
    frequency:    0.1863669416
  - # 2
    frequency:    0.1863669416
  - # 3
    frequency:    0.2828709896
  - # 4
    frequency:    1.6328264520
  - # 5
    frequency:    1.6328264520
  - # 6
    frequency:    1.6688104968

- q-position: [    0.0600000,    0.0600000,    0.0600000 ]
  distance:    0.0970986
  band:
  - # 1
    frequency:    0.1597716670
  - # 2
    frequency:    0.1597716670
  - # 3
    frequency:    0.2425490528
  - # 4
    frequency:    1.6314357113
  - # 5
    frequency:    1.6314357113
  - # 6
    frequency:    1.6581643636

- q-position: [    0.0500000,    0.0500000,    0.0500000 ]
  distance:    0.0993053
  band:
  - # 1
    frequency:    0.1331628207
  - # 2
    frequency:    0.1331628207
  - # 3
    frequency:    0.2021856285
  - # 4
    frequency:    1.6301581654
  - # 5
    frequency:    1.6301581654
  - # 6
    frequency:    1.6488949853

- q-position: [    0.0400000,    0.0400000,    0.0400000 ]
  distance:    0.1015121
  band:
  - # 1
    frequency:    0.1065429938
  - # 2
    frequency:    0.1065429938
  - # 3
    frequency:    0.1617882819
  - # 4
    frequency:    1.6290425202
  - # 5
    frequency:    1.6290425202
  - # 6
    frequency:    1.6411276843

- q-position: [    0.0300000,    0.0300000,    0.0300000 ]
  distance:    0.1037189
  band:
  - # 1
    frequency:    0.0799145860
  - # 2
    frequency:    0.0799145860
  - # 3
    frequency:    0.1213642203
  - # 4
    frequency:    1.6281301298
  - # 5
    frequency:    1.6281301298
  - # 6
    frequency:    1.6349696458

- q-position: [    0.0200000,    0.0200000,    0.0200000 ]
  distance:    0.1059257
  band:
  - # 1
    frequency:    0.0532798554
  - # 2
    frequency:    0.0532798554
  - # 3
    frequency:    0.0809203672
  - # 4
    frequency:    1.6274541228
  - # 5
    frequency:    1.6274541228
  - # 6
    frequency:    1.6305072791

- q-position: [    0.0100000,    0.0100000,    0.0100000 ]
  distance:    0.1081325
  band:
  - # 1
    frequency:    0.0266409611
  - # 2
    frequency:    0.0266409611
  - # 3
    frequency:    0.0404634359
  - # 4
    frequency:    1.6270386912
  - # 5
    frequency:    1.6270386912
  - # 6
    frequency:    1.6278040024

- q-position: [    0.0000000,    0.0000000,    0.0000000 ]
  distance:    0.1103393
  band:
  - # 1
    frequency:   -0.0000000219
  - # 2
    frequency:    0.0000000125
  - # 3
    frequency:    0.0000000283
  - # 4
    frequency:    1.6268985652
  - # 5
    frequency:    1.6268985652
  - # 6
    frequency:    1.6268985652

- q-position: [    0.0000000,    0.0000000,    0.0000000 ]
  distance:    0.1103393
  band:
  - # 1
    frequency:   -0.0000000219
  - # 2
    frequency:    0.0000000125
  - # 3
    frequency:    0.0000000283
  - # 4
    frequency:    1.6268985652
  - # 5
    frequency:    1.6268985652
  - # 6
    frequency:    1.6268985652

- q-position: [    0.0100000,    0.0100000,    0.0000000 ]
  distance:    0.1128875
  band:
  - # 1
    frequency:    0.0167105665
  - # 2
    frequency:    0.0167105665
  - # 3
    frequency:    0.0592914644
  - # 4
    frequency:    1.6269448031
  - # 5
    frequency:    1.6269448031
  - # 6
    frequency:    1.6283864572

- q-position: [    0.0200000,    0.0200000,    0.0000000 ]
  distance:    0.1154356
  band:
  - # 1
    frequency:    0.0334113475
  - # 2
    frequency:    0.0334113475
  - # 3
    frequency:    0.1184925688
  - # 4
    frequency:    1.6270832588
  - # 5
    frequency:    1.6270832588
  - # 6
    frequency:    1.6328135582

- q-position: [    0.0300000,    0.0300000,    0.0000000 ]
  distance:    0.1179838
  band:
  - # 1
    frequency:    0.0500925416
  - # 2
    frequency:    0.0500925416
  - # 3
    frequency:    0.1775133710
  - # 4
    frequency:    1.6273131592
  - # 5
    frequency:    1.6273131592
  - # 6
    frequency:    1.6400715853

- q-position: [    0.0400000,    0.0400000,    0.0000000 ]
  distance:    0.1205320
  band:
  - # 1
    frequency:    0.0667443147
  - # 2
    frequency:    0.0667443147
  - # 3
    frequency:    0.2362647544
  - # 4
    frequency:    1.6276332193
  - # 5
    frequency:    1.6276332193
  - # 6
    frequency:    1.6499847397

- q-position: [    0.0500000,    0.0500000,    0.0000000 ]
  distance:    0.1230802
  band:
  - # 1
    frequency:    0.0833567799
  - # 2
    frequency:    0.0833567799
  - # 3
    frequency:    0.2946588183
  - # 4
    frequency:    1.6280416486
  - # 5
    frequency:    1.6280416486
  - # 6
    frequency:    1.6623162764

- q-position: [    0.0600000,    0.0600000,    0.0000000 ]
  distance:    0.1256283
  band:
  - # 1
    frequency:    0.0999199746
  - # 2
    frequency:    0.0999199746
  - # 3
    frequency:    0.3526092422
  - # 4
    frequency:    1.6285361585
  - # 5
    frequency:    1.6285361585
  - # 6
    frequency:    1.6767768964

- q-position: [    0.0700000,    0.0700000,    0.0000000 ]
  distance:    0.1281765
  band:
  - # 1
    frequency:    0.1164238326
  - # 2
    frequency:    0.1164238326
  - # 3
    frequency:    0.4100316219
  - # 4
    frequency:    1.6291139749
  - # 5
    frequency:    1.6291139749
  - # 6
    frequency:    1.6930343148

- q-position: [    0.0800000,    0.0800000,    0.0000000 ]
  distance:    0.1307247
  band:
  - # 1
    frequency:    0.1328581511
  - # 2
    frequency:    0.1328581511
  - # 3
    frequency:    0.4668437736
  - # 4
    frequency:    1.6297718522
  - # 5
    frequency:    1.6297718522
  - # 6
    frequency:    1.7107233484

- q-position: [    0.0900000,    0.0900000,    0.0000000 ]
  distance:    0.1332729
  band:
  - # 1
    frequency:    0.1492125532
  - # 2
    frequency:    0.1492125532
  - # 3
    frequency:    0.5229660078
  - # 4
    frequency:    1.6305060929
  - # 5
    frequency:    1.6305060929
  - # 6
    frequency:    1.7294559395

- q-position: [    0.1000000,    0.1000000,    0.0000000 ]
  distance:    0.1358210
  band:
  - # 1
    frequency:    0.1654764453
  - # 2
    frequency:    0.1654764453
  - # 3
    frequency:    0.5783213734
  - # 4
    frequency:    1.6313125703
  - # 5
    frequency:    1.6313125703
  - # 6
    frequency:    1.7488306475

- q-position: [    0.1100000,    0.1100000,    0.0000000 ]
  distance:    0.1383692
  band:
  - # 1
    frequency:    0.1816389699
  - # 2
    frequency:    0.1816389699
  - # 3
    frequency:    0.6328358763
  - # 4
    frequency:    1.6321867562
  - # 5
    frequency:    1.6321867562
  - # 6
    frequency:    1.7684412810

- q-position: [    0.1200000,    0.1200000,    0.0000000 ]
  distance:    0.1409174
  band:
  - # 1
    frequency:    0.1976889555
  - # 2
    frequency:    0.1976889555
  - # 3
    frequency:    0.6864386726
  - # 4
    frequency:    1.6331237532
  - # 5
    frequency:    1.6331237532
  - # 6
    frequency:    1.7878844812

- q-position: [    0.1300000,    0.1300000,    0.0000000 ]
  distance:    0.1434656
  band:
  - # 1
    frequency:    0.2136148651
  - # 2
    frequency:    0.2136148651
  - # 3
    frequency:    0.7390622415
  - # 4
    frequency:    1.6341183318
  - # 5
    frequency:    1.6341183318
  - # 6
    frequency:    1.8067661842

- q-position: [    0.1400000,    0.1400000,    0.0000000 ]
  distance:    0.1460137
  band:
  - # 1
    frequency:    0.2294047436
  - # 2
    frequency:    0.2294047436
  - # 3
    frequency:    0.7906425365
  - # 4
    frequency:    1.6351649721
  - # 5
    frequency:    1.6351649721
  - # 6
    frequency:    1.8247069842

- q-position: [    0.1500000,    0.1500000,    0.0000000 ]
  distance:    0.1485619
  band:
  - # 1
    frequency:    0.2450461675
  - # 2
    frequency:    0.2450461675
  - # 3
    frequency:    0.8411191189
  - # 4
    frequency:    1.6362579098
  - # 5
    frequency:    1.6362579098
  - # 6
    frequency:    1.8413464778

- q-position: [    0.1600000,    0.1600000,    0.0000000 ]
  distance:    0.1511101
  band:
  - # 1
    frequency:    0.2605261978
  - # 2
    frequency:    0.2605261978
  - # 3
    frequency:    0.8904352690
  - # 4
    frequency:    1.6373911854
  - # 5
    frequency:    1.6373911854
  - # 6
    frequency:    1.8563467108

- q-position: [    0.1700000,    0.1700000,    0.0000000 ]
  distance:    0.1536583
  band:
  - # 1
    frequency:    0.2758313392
  - # 2
    frequency:    0.2758313392
  - # 3
    frequency:    0.9385380780
  - # 4
    frequency:    1.6385586973
  - # 5
    frequency:    1.6385586973
  - # 6
    frequency:    1.8693948624

- q-position: [    0.1800000,    0.1800000,    0.0000000 ]
  distance:    0.1562064
  band:
  - # 1
    frequency:    0.2909475059
  - # 2
    frequency:    0.2909475059
  - # 3
    frequency:    0.9853785151
  - # 4
    frequency:    1.6397542566
  - # 5
    frequency:    1.6397542566
  - # 6
    frequency:    1.8802053038

- q-position: [    0.1900000,    0.1900000,    0.0000000 ]
  distance:    0.1587546
  band:
  - # 1
    frequency:    0.3058599981
  - # 2
    frequency:    0.3058599981
  - # 3
    frequency:    1.0309114681
  - # 4
    frequency:    1.6409716426
  - # 5
    frequency:    1.6409716426
  - # 6
    frequency:    1.8885211606

- q-position: [    0.2000000,    0.2000000,    0.0000000 ]
  distance:    0.1613028
  band:
  - # 1
    frequency:    0.3205534886
  - # 2
    frequency:    0.3205534886
  - # 3
    frequency:    1.0750957526
  - # 4
    frequency:    1.6422046587
  - # 5
    frequency:    1.6422046587
  - # 6
    frequency:    1.8941154976

- q-position: [    0.2100000,    0.2100000,    0.0000000 ]
  distance:    0.1638510
  band:
  - # 1
    frequency:    0.3350120225
  - # 2
    frequency:    0.3350120225
  - # 3
    frequency:    1.1178940837
  - # 4
    frequency:    1.6434471874
  - # 5
    frequency:    1.6434471874
  - # 6
    frequency:    1.8967922293

- q-position: [    0.2200000,    0.2200000,    0.0000000 ]
  distance:    0.1663992
  band:
  - # 1
    frequency:    0.3492190302
  - # 2
    frequency:    0.3492190302
  - # 3
    frequency:    1.1592730008
  - # 4
    frequency:    1.6446932425
  - # 5
    frequency:    1.6446932425
  - # 6
    frequency:    1.8963868483

- q-position: [    0.2300000,    0.2300000,    0.0000000 ]
  distance:    0.1689473
  band:
  - # 1
    frequency:    0.3631573548
  - # 2
    frequency:    0.3631573548
  - # 3
    frequency:    1.1992027336
  - # 4
    frequency:    1.6459370177
  - # 5
    frequency:    1.6459370177
  - # 6
    frequency:    1.8927670554

- q-position: [    0.2400000,    0.2400000,    0.0000000 ]
  distance:    0.1714955
  band:
  - # 1
    frequency:    0.3768092926
  - # 2
    frequency:    0.3768092926
  - # 3
    frequency:    1.2376569843
  - # 4
    frequency:    1.6471729307
  - # 5
    frequency:    1.6471729307
  - # 6
    frequency:    1.8858333742

- q-position: [    0.2500000,    0.2500000,    0.0000000 ]
  distance:    0.1740437
  band:
  - # 1
    frequency:    0.3901566495
  - # 2
    frequency:    0.3901566495
  - # 3
    frequency:    1.2746125915
  - # 4
    frequency:    1.6483956623
  - # 5
    frequency:    1.6483956623
  - # 6
    frequency:    1.8755198360

- q-position: [    0.2600000,    0.2600000,    0.0000000 ]
  distance:    0.1765919
  band:
  - # 1
    frequency:    0.4031808090
  - # 2
    frequency:    0.4031808090
  - # 3
    frequency:    1.3100490049
  - # 4
    frequency:    1.6496001886
  - # 5
    frequency:    1.6496001886
  - # 6
    frequency:    1.8617948525

- q-position: [    0.2700000,    0.2700000,    0.0000000 ]
  distance:    0.1791400
  band:
  - # 1
    frequency:    0.4158628136
  - # 2
    frequency:    0.4158628136
  - # 3
    frequency:    1.3439474405
  - # 4
    frequency:    1.6507818063
  - # 5
    frequency:    1.6507818063
  - # 6
    frequency:    1.8446624466

- q-position: [    0.2800000,    0.2800000,    0.0000000 ]
  distance:    0.1816882
  band:
  - # 1
    frequency:    0.4281834568
  - # 2
    frequency:    0.4281834568
  - # 3
    frequency:    1.3762894475
  - # 4
    frequency:    1.6519361517
  - # 5
    frequency:    1.6519361517
  - # 6
    frequency:    1.8241641526

- q-position: [    0.2900000,    0.2900000,    0.0000000 ]
  distance:    0.1842364
  band:
  - # 1
    frequency:    0.4401233840
  - # 2
    frequency:    0.4401233840
  - # 3
    frequency:    1.4070542920
  - # 4
    frequency:    1.6530592115
  - # 5
    frequency:    1.6530592115
  - # 6
    frequency:    1.8003822177

- q-position: [    0.3000000,    0.3000000,    0.0000000 ]
  distance:    0.1867846
  band:
  - # 1
    frequency:    0.4516632014
  - # 2
    frequency:    0.4516632014
  - # 3
    frequency:    1.4362137271
  - # 4
    frequency:    1.6541473273
  - # 5
    frequency:    1.6541473273
  - # 6
    frequency:    1.7734455798

- q-position: [    0.3100000,    0.3100000,    0.0000000 ]
  distance:    0.1893327
  band:
  - # 1
    frequency:    0.4627835888
  - # 2
    frequency:    0.4627835888
  - # 3
    frequency:    1.4637202724
  - # 4
    frequency:    1.6551971926
  - # 5
    frequency:    1.6551971926
  - # 6
    frequency:    1.7435425391

- q-position: [    0.3200000,    0.3200000,    0.0000000 ]
  distance:    0.1918809
  band:
  - # 1
    frequency:    0.4734654167
  - # 2
    frequency:    0.4734654167
  - # 3
    frequency:    1.4894768028
  - # 4
    frequency:    1.6562058444
  - # 5
    frequency:    1.6562058444
  - # 6
    frequency:    1.7109523673

- q-position: [    0.3300000,    0.3300000,    0.0000000 ]
  distance:    0.1944291
  band:
  - # 1
    frequency:    0.4836898628
  - # 2
    frequency:    0.4836898628
  - # 3
    frequency:    1.5132401440
  - # 4
    frequency:    1.6571706493
  - # 5
    frequency:    1.6571706493
  - # 6
    frequency:    1.6761431971

- q-position: [    0.3400000,    0.3400000,    0.0000000 ]
  distance:    0.1969773
  band:
  - # 1
    frequency:    0.4934385281
  - # 2
    frequency:    0.4934385281
  - # 3
    frequency:    1.5342104858
  - # 4
    frequency:    1.6401844163
  - # 5
    frequency:    1.6580892851
  - # 6
    frequency:    1.6580892851

- q-position: [    0.3500000,    0.3500000,    0.0000000 ]
  distance:    0.1995254
  band:
  - # 1
    frequency:    0.5026935485
  - # 2
    frequency:    0.5026935485
  - # 3
    frequency:    1.5483694195
  - # 4
    frequency:    1.6074107762
  - # 5
    frequency:    1.6589597184
  - # 6
    frequency:    1.6589597184

- q-position: [    0.3600000,    0.3600000,    0.0000000 ]
  distance:    0.2020736
  band:
  - # 1
    frequency:    0.5114377014
  - # 2
    frequency:    0.5114377014
  - # 3
    frequency:    1.5373258534
  - # 4
    frequency:    1.5965789485
  - # 5
    frequency:    1.6597801811
  - # 6
    frequency:    1.6597801811

- q-position: [    0.3700000,    0.3700000,    0.0000000 ]
  distance:    0.2046218
  band:
  - # 1
    frequency:    0.5196545050
  - # 2
    frequency:    0.5196545050
  - # 3
    frequency:    1.5013655081
  - # 4
    frequency:    1.6078207596
  - # 5
    frequency:    1.6605491448
  - # 6
    frequency:    1.6605491448

- q-position: [    0.3800000,    0.3800000,    0.0000000 ]
  distance:    0.2071700
  band:
  - # 1
    frequency:    0.5273283099
  - # 2