phono3py:
  version: 1.21.0
  frequency_unit_conversion_factor: 15.633302
  symmetry_tolerance: 1.00000e-05
  configuration:
    create_displacements: ".true."
    dim: "2 2 2"

physical_unit:
  atomic_mass: "AMU"
  length: "angstrom"

space_group:
  type: "Fm-3m"
  number: 225
  Hall_symbol: "-F 4 2 3"

supercell_matrix:
- [   2,   0,   0 ]
- [   0,   2,   0 ]
- [   0,   0,   2 ]

primitive_cell:
  lattice:
  - [     7.848750170396335,     0.000000012535134,     0.000000013274547 ] # a
  - [     0.000000013274547,     7.848750170396335,     0.000000012535134 ] # b
  - [     0.000000012535134,     0.000000013274547,     7.848750170396335 ] # c
  points:
  - symbol: Cs # 1
    coordinates: [  0.000000000000000,  0.000000000000000,  0.000000000000000 ]
    mass: 132.905452
  - symbol: Cs # 2
    coordinates: [  0.500000000000000,  0.500000000000000,  0.000000000000000 ]
    mass: 132.905452
  - symbol: Cs # 3
    coordinates: [  0.500000000000000,  0.000000000000000,  0.500000000000000 ]
    mass: 132.905452
  - symbol: Cs # 4
    coordinates: [  0.000000000000000,  0.500000000000000,  0.500000000000000 ]
    mass: 132.905452
  - symbol: I  # 5
    coordinates: [  0.000000000000000,  0.000000000000000,  0.500000000000000 ]
    mass: 126.904470
  - symbol: I  # 6
    coordinates: [  0.500000000000000,  0.000000000000000,  0.000000000000000 ]
    mass: 126.904470
  - symbol: I  # 7
    coordinates: [  0.000000000000000,  0.500000000000000,  0.000000000000000 ]
    mass: 126.904470
  - symbol: I  # 8
    coordinates: [  0.500000000000000,  0.500000000000000,  0.500000000000000 ]
    mass: 126.904470
  reciprocal_lattice: # without 2pi
  - [     0.127408820294952,    -0.000000000215486,    -0.000000000203483 ] # a*
  - [    -0.000000000203483,     0.127408820294952,    -0.000000000215486 ] # b*
  - [    -0.000000000215486,    -0.000000000203483,     0.127408820294952 ] # c*

unit_cell:
  lattice:
  - [     7.848750170396335,     0.000000012535134,     0.000000013274547 ] # a
  - [     0.000000013274547,     7.848750170396335,     0.000000012535134 ] # b
  - [     0.000000012535134,     0.000000013274547,     7.848750170396335 ] # c
  points:
  - symbol: Cs # 1
    coordinates: [ -0.000000000000000,  0.000000000000000,  0.000000000000000 ]
    mass: 132.905452
    reduced_to: 1
  - symbol: Cs # 2
    coordinates: [  0.500000000000000,  0.500000000000000,  0.000000000000000 ]
    mass: 132.905452
    reduced_to: 2
  - symbol: Cs # 3
    coordinates: [  0.500000000000000, -0.000000000000000,  0.500000000000000 ]
    mass: 132.905452
    reduced_to: 3
  - symbol: Cs # 4
    coordinates: [  0.000000000000000,  0.500000000000000,  0.500000000000000 ]
    mass: 132.905452
    reduced_to: 4
  - symbol: I  # 5
    coordinates: [ -0.000000000000000, -0.000000000000000,  0.500000000000000 ]
    mass: 126.904470
    reduced_to: 5
  - symbol: I  # 6
    coordinates: [  0.500000000000000, -0.000000000000000,  0.000000000000000 ]
    mass: 126.904470
    reduced_to: 6
  - symbol: I  # 7
    coordinates: [ -0.000000000000000,  0.500000000000000,  0.000000000000000 ]
    mass: 126.904470
    reduced_to: 7
  - symbol: I  # 8
    coordinates: [  0.500000000000000,  0.500000000000000,  0.500000000000000 ]
    mass: 126.904470
    reduced_to: 8

supercell:
  lattice:
  - [    15.697500340792670,     0.000000025070267,     0.000000026549094 ] # a
  - [     0.000000026549094,    15.697500340792670,     0.000000025070267 ] # b
  - [     0.000000025070267,     0.000000026549094,    15.697500340792670 ] # c
  points:
  - symbol: Cs # 1
    coordinates: [  0.000000000000000,  0.000000000000000,  0.000000000000000 ]
    mass: 132.905452
    reduced_to: 1
  - symbol: Cs # 2
    coordinates: [  0.500000000000000,  0.000000000000000,  0.000000000000000 ]
    mass: 132.905452
    reduced_to: 1
  - symbol: Cs # 3
    coordinates: [  0.000000000000000,  0.500000000000000,  0.000000000000000 ]
    mass: 132.905452
    reduced_to: 1
  - symbol: Cs # 4
    coordinates: [  0.500000000000000,  0.500000000000000,  0.000000000000000 ]
    mass: 132.905452
    reduced_to: 1
  - symbol: Cs # 5
    coordinates: [  0.000000000000000,  0.000000000000000,  0.500000000000000 ]
    mass: 132.905452
    reduced_to: 1
  - symbol: Cs # 6
    coordinates: [  0.500000000000000,  0.000000000000000,  0.500000000000000 ]
    mass: 132.905452
    reduced_to: 1
  - symbol: Cs # 7
    coordinates: [  0.000000000000000,  0.500000000000000,  0.500000000000000 ]
    mass: 132.905452
    reduced_to: 1
  - symbol: Cs # 8
    coordinates: [  0.500000000000000,  0.500000000000000,  0.500000000000000 ]
    mass: 132.905452
    reduced_to: 1
  - symbol: Cs # 9
    coordinates: [  0.250000000000000,  0.250000000000000,  0.000000000000000 ]
    mass: 132.905452
    reduced_to: 9
  - symbol: Cs # 10
    coordinates: [  0.750000000000000,  0.250000000000000,  0.000000000000000 ]
    mass: 132.905452
    reduced_to: 9
  - symbol: Cs # 11
    coordinates: [  0.250000000000000,  0.750000000000000,  0.000000000000000 ]
    mass: 132.905452
    reduced_to: 9
  - symbol: Cs # 12
    coordinates: [  0.750000000000000,  0.750000000000000,  0.000000000000000 ]
    mass: 132.905452
    reduced_to: 9
  - symbol: Cs # 13
    coordinates: [  0.250000000000000,  0.250000000000000,  0.500000000000000 ]
    mass: 132.905452
    reduced_to: 9
  - symbol: Cs # 14
    coordinates: [  0.750000000000000,  0.250000000000000,  0.500000000000000 ]
    mass: 132.905452
    reduced_to: 9
  - symbol: Cs # 15
    coordinates: [  0.250000000000000,  0.750000000000000,  0.500000000000000 ]
    mass: 132.905452
    reduced_to: 9
  - symbol: Cs # 16
    coordinates: [  0.750000000000000,  0.750000000000000,  0.500000000000000 ]
    mass: 132.905452
    reduced_to: 9
  - symbol: Cs # 17
    coordinates: [  0.250000000000000,  0.000000000000000,  0.250000000000000 ]
    mass: 132.905452
    reduced_to: 17
  - symbol: Cs # 18
    coordinates: [  0.750000000000000,  0.000000000000000,  0.250000000000000 ]
    mass: 132.905452
    reduced_to: 17
  - symbol: Cs # 19
    coordinates: [  0.250000000000000,  0.500000000000000,  0.250000000000000 ]
    mass: 132.905452
    reduced_to: 17
  - symbol: Cs # 20
    coordinates: [  0.750000000000000,  0.500000000000000,  0.250000000000000 ]
    mass: 132.905452
    reduced_to: 17
  - symbol: Cs # 21
    coordinates: [  0.250000000000000,  0.000000000000000,  0.750000000000000 ]
    mass: 132.905452
    reduced_to: 17
  - symbol: Cs # 22
    coordinates: [  0.750000000000000,  0.000000000000000,  0.750000000000000 ]
    mass: 132.905452
    reduced_to: 17
  - symbol: Cs # 23
    coordinates: [  0.250000000000000,  0.500000000000000,  0.750000000000000 ]
    mass: 132.905452
    reduced_to: 17
  - symbol: Cs # 24
    coordinates: [  0.750000000000000,  0.500000000000000,  0.750000000000000 ]
    mass: 132.905452
    reduced_to: 17
  - symbol: Cs # 25
    coordinates: [  0.000000000000000,  0.250000000000000,  0.250000000000000 ]
    mass: 132.905452
    reduced_to: 25
  - symbol: Cs # 26
    coordinates: [  0.500000000000000,  0.250000000000000,  0.250000000000000 ]
    mass: 132.905452
    reduced_to: 25
  - symbol: Cs # 27
    coordinates: [  0.000000000000000,  0.750000000000000,  0.250000000000000 ]
    mass: 132.905452
    reduced_to: 25
  - symbol: Cs # 28
    coordinates: [  0.500000000000000,  0.750000000000000,  0.250000000000000 ]
    mass: 132.905452
    reduced_to: 25
  - symbol: Cs # 29
    coordinates: [  0.000000000000000,  0.250000000000000,  0.750000000000000 ]
    mass: 132.905452
    reduced_to: 25
  - symbol: Cs # 30
    coordinates: [  0.500000000000000,  0.250000000000000,  0.750000000000000 ]
    mass: 132.905452
    reduced_to: 25
  - symbol: Cs # 31
    coordinates: [  0.000000000000000,  0.750000000000000,  0.750000000000000 ]
    mass: 132.905452
    reduced_to: 25
  - symbol: Cs # 32
    coordinates: [  0.500000000000000,  0.750000000000000,  0.750000000000000 ]
    mass: 132.905452
    reduced_to: 25
  - symbol: I  # 33
    coordinates: [  0.000000000000000,  0.000000000000000,  0.250000000000000 ]
    mass: 126.904470
    reduced_to: 33
  - symbol: I  # 34
    coordinates: [  0.500000000000000,  0.000000000000000,  0.250000000000000 ]
    mass: 126.904470
    reduced_to: 33
  - symbol: I  # 35
    coordinates: [  0.000000000000000,  0.500000000000000,  0.250000000000000 ]
    mass: 126.904470
    reduced_to: 33
  - symbol: I  # 36
    coordinates: [  0.500000000000000,  0.500000000000000,  0.250000000000000 ]
    mass: 126.904470
    reduced_to: 33
  - symbol: I  # 37
    coordinates: [  0.000000000000000,  0.000000000000000,  0.750000000000000 ]
    mass: 126.904470
    reduced_to: 33
  - symbol: I  # 38
    coordinates: [  0.500000000000000,  0.000000000000000,  0.750000000000000 ]
    mass: 126.904470
    reduced_to: 33
  - symbol: I  # 39
    coordinates: [  0.000000000000000,  0.500000000000000,  0.750000000000000 ]
    mass: 126.904470
    reduced_to: 33
  - symbol: I  # 40
    coordinates: [  0.500000000000000,  0.500000000000000,  0.750000000000000 ]
    mass: 126.904470
    reduced_to: 33
  - symbol: I  # 41
    coordinates: [  0.250000000000000,  0.000000000000000,  0.000000000000000 ]
    mass: 126.904470
    reduced_to: 41
  - symbol: I  # 42
    coordinates: [  0.750000000000000,  0.000000000000000,  0.000000000000000 ]
    mass: 126.904470
    reduced_to: 41
  - symbol: I  # 43
    coordinates: [  0.250000000000000,  0.500000000000000,  0.000000000000000 ]
    mass: 126.904470
    reduced_to: 41
  - symbol: I  # 44
    coordinates: [  0.750000000000000,  0.500000000000000,  0.000000000000000 ]
    mass: 126.904470
    reduced_to: 41
  - symbol: I  # 45
    coordinates: [  0.250000000000000,  0.000000000000000,  0.500000000000000 ]
    mass: 126.904470
    reduced_to: 41
  - symbol: I  # 46
    coordinates: [  0.750000000000000,  0.000000000000000,  0.500000000000000 ]
    mass: 126.904470
    reduced_to: 41
  - symbol: I  # 47
    coordinates: [  0.250000000000000,  0.500000000000000,  0.500000000000000 ]
    mass: 126.904470
    reduced_to: 41
  - symbol: I  # 48
    coordinates: [  0.750000000000000,  0.500000000000000,  0.500000000000000 ]
    mass: 126.904470
    reduced_to: 41
  - symbol: I  # 49
    coordinates: [  0.000000000000000,  0.250000000000000,  0.000000000000000 ]
    mass: 126.904470
    reduced_to: 49
  - symbol: I  # 50
    coordinates: [  0.500000000000000,  0.250000000000000,  0.000000000000000 ]
    mass: 126.904470
    reduced_to: 49
  - symbol: I  # 51
    coordinates: [  0.000000000000000,  0.750000000000000,  0.000000000000000 ]
    mass: 126.904470
    reduced_to: 49
  - symbol: I  # 52
    coordinates: [  0.500000000000000,  0.750000000000000,  0.000000000000000 ]
    mass: 126.904470
    reduced_to: 49
  - symbol: I  # 53
    coordinates: [  0.000000000000000,  0.250000000000000,  0.500000000000000 ]
    mass: 126.904470
    reduced_to: 49
  - symbol: I  # 54
    coordinates: [  0.500000000000000,  0.250000000000000,  0.500000000000000 ]
    mass: 126.904470
    reduced_to: 49
  - symbol: I  # 55
    coordinates: [  0.000000000000000,  0.750000000000000,  0.500000000000000 ]
    mass: 126.904470
    reduced_to: 49
  - symbol: I  # 56
    coordinates: [  0.500000000000000,  0.750000000000000,  0.500000000000000 ]
    mass: 126.904470
    reduced_to: 49
  - symbol: I  # 57
    coordinates: [  0.250000000000000,  0.250000000000000,  0.250000000000000 ]
    mass: 126.904470
    reduced_to: 57
  - symbol: I  # 58
    coordinates: [  0.750000000000000,  0.250000000000000,  0.250000000000000 ]
    mass: 126.904470
    reduced_to: 57
  - symbol: I  # 59
    coordinates: [  0.250000000000000,  0.750000000000000,  0.250000000000000 ]
    mass: 126.904470
    reduced_to: 57
  - symbol: I  # 60
    coordinates: [  0.750000000000000,  0.750000000000000,  0.250000000000000 ]
    mass: 126.904470
    reduced_to: 57
  - symbol: I  # 61
    coordinates: [  0.250000000000000,  0.250000000000000,  0.750000000000000 ]
    mass: 126.904470
    reduced_to: 57
  - symbol: I  # 62
    coordinates: [  0.750000000000000,  0.250000000000000,  0.750000000000000 ]
    mass: 126.904470
    reduced_to: 57
  - symbol: I  # 63
    coordinates: [  0.250000000000000,  0.750000000000000,  0.750000000000000 ]
    mass: 126.904470
    reduced_to: 57
  - symbol: I  # 64
    coordinates: [  0.750000000000000,  0.750000000000000,  0.750000000000000 ]
    mass: 126.904470
    reduced_to: 57

phonon_primitive_cell:
  lattice:
  - [     7.848750170396335,     0.000000012535134,     0.000000013274547 ] # a
  - [     0.000000013274547,     7.848750170396335,     0.000000012535134 ] # b
  - [     0.000000012535134,     0.000000013274547,     7.848750170396335 ] # c
  points:
  - symbol: Cs # 1
    coordinates: [  0.000000000000000,  0.000000000000000,  0.000000000000000 ]
    mass: 132.905452
  - symbol: Cs # 2
    coordinates: [  0.500000000000000,  0.500000000000000,  0.000000000000000 ]
    mass: 132.905452
  - symbol: Cs # 3
    coordinates: [  0.500000000000000,  0.000000000000000,  0.500000000000000 ]
    mass: 132.905452
  - symbol: Cs # 4
    coordinates: [  0.000000000000000,  0.500000000000000,  0.500000000000000 ]
    mass: 132.905452
  - symbol: I  # 5
    coordinates: [  0.000000000000000,  0.000000000000000,  0.500000000000000 ]
    mass: 126.904470
  - symbol: I  # 6
    coordinates: [  0.500000000000000,  0.000000000000000,  0.000000000000000 ]
    mass: 126.904470
  - symbol: I  # 7
    coordinates: [  0.000000000000000,  0.500000000000000,  0.000000000000000 ]
    mass: 126.904470
  - symbol: I  # 8
    coordinates: [  0.500000000000000,  0.500000000000000,  0.500000000000000 ]
    mass: 126.904470
  reciprocal_lattice: # without 2pi
  - [     0.127408820294952,    -0.000000000215486,    -0.000000000203483 ] # a*
  - [    -0.000000000203483,     0.127408820294952,    -0.000000000215486 ] # b*
  - [    -0.000000000215486,    -0.000000000203483,     0.127408820294952 ] # c*

phonon_supercell:
  lattice:
  - [    15.697500340792670,     0.000000025070267,     0.000000026549094 ] # a
  - [     0.000000026549094,    15.697500340792670,     0.000000025070267 ] # b
  - [     0.000000025070267,     0.000000026549094,    15.697500340792670 ] # c
  points:
  - symbol: Cs # 1
    coordinates: [  0.000000000000000,  0.000000000000000,  0.000000000000000 ]
    mass: 132.905452
    reduced_to: 1
  - symbol: Cs # 2
    coordinates: [  0.500000000000000,  0.000000000000000,  0.000000000000000 ]
    mass: 132.905452
    reduced_to: 1
  - symbol: Cs # 3
    coordinates: [  0.000000000000000,  0.500000000000000,  0.000000000000000 ]
    mass: 132.905452
    reduced_to: 1
  - symbol: Cs # 4
    coordinates: [  0.500000000000000,  0.500000000000000,  0.000000000000000 ]
    mass: 132.905452
    reduced_to: 1
  - symbol: Cs # 5
    coordinates: [  0.000000000000000,  0.000000000000000,  0.500000000000000 ]
    mass: 132.905452
    reduced_to: 1
  - symbol: Cs # 6
    coordinates: [  0.500000000000000,  0.000000000000000,  0.500000000000000 ]
    mass: 132.905452
    reduced_to: 1
  - symbol: Cs # 7
    coordinates: [  0.000000000000000,  0.500000000000000,  0.500000000000000 ]
    mass: 132.905452
    reduced_to: 1
  - symbol: Cs # 8
    coordinates: [  0.500000000000000,  0.500000000000000,  0.500000000000000 ]
    mass: 132.905452
    reduced_to: 1
  - symbol: Cs # 9
    coordinates: [  0.250000000000000,  0.250000000000000,  0.000000000000000 ]
    mass: 132.905452
    reduced_to: 9
  - symbol: Cs # 10
    coordinates: [  0.750000000000000,  0.250000000000000,  0.000000000000000 ]
    mass: 132.905452
    reduced_to: 9
  - symbol: Cs # 11
    coordinates: [  0.250000000000000,  0.750000000000000,  0.000000000000000 ]
    mass: 132.905452
    reduced_to: 9
  - symbol: Cs # 12
    coordinates: [  0.750000000000000,  0.750000000000000,  0.000000000000000 ]
    mass: 132.905452
    reduced_to: 9
  - symbol: Cs # 13
    coordinates: [  0.250000000000000,  0.250000000000000,  0.500000000000000 ]
    mass: 132.905452
    reduced_to: 9
  - symbol: Cs # 14
    coordinates: [  0.750000000000000,  0.250000000000000,  0.500000000000000 ]
    mass: 132.905452
    reduced_to: 9
  - symbol: Cs # 15
    coordinates: [  0.250000000000000,  0.750000000000000,  0.500000000000000 ]
    mass: 132.905452
    reduced_to: 9
  - symbol: Cs # 16
    coordinates: [  0.750000000000000,  0.750000000000000,  0.500000000000000 ]
    mass: 132.905452
    reduced_to: 9
  - symbol: Cs # 17
    coordinates: [  0.250000000000000,  0.000000000000000,  0.250000000000000 ]
    mass: 132.905452
    reduced_to: 17
  - symbol: Cs # 18
    coordinates: [  0.750000000000000,  0.000000000000000,  0.250000000000000 ]
    mass: 132.905452
    reduced_to: 17
  - symbol: Cs # 19
    coordinates: [  0.250000000000000,  0.500000000000000,  0.250000000000000 ]
    mass: 132.905452
    reduced_to: 17
  - symbol: Cs # 20
    coordinates: [  0.750000000000000,  0.500000000000000,  0.250000000000000 ]
    mass: 132.905452
    reduced_to: 17
  - symbol: Cs # 21
    coordinates: [  0.250000000000000,  0.000000000000000,  0.750000000000000 ]
    mass: 132.905452
    reduced_to: 17
  - symbol: Cs # 22
    coordinates: [  0.750000000000000,  0.000000000000000,  0.750000000000000 ]
    mass: 132.905452
    reduced_to: 17
  - symbol: Cs # 23
    coordinates: [  0.250000000000000,  0.500000000000000,  0.750000000000000 ]
    mass: 132.905452
    reduced_to: 17
  - symbol: Cs # 24
    coordinates: [  0.750000000000000,  0.500000000000000,  0.750000000000000 ]
    mass: 132.905452
    reduced_to: 17
  - symbol: Cs # 25
    coordinates: [  0.000000000000000,  0.250000000000000,  0.250000000000000 ]
    mass: 132.905452
    reduced_to: 25
  - symbol: Cs # 26
    coordinates: [  0.500000000000000,  0.250000000000000,  0.250000000000000 ]
    mass: 132.905452
    reduced_to: 25
  - symbol: Cs # 27
    coordinates: [  0.000000000000000,  0.750000000000000,  0.250000000000000 ]
    mass: 132.905452
    reduced_to: 25
  - symbol: Cs # 28
    coordinates: [  0.500000000000000,  0.750000000000000,  0.250000000000000 ]
    mass: 132.905452
    reduced_to: 25
  - symbol: Cs # 29
    coordinates: [  0.000000000000000,  0.250000000000000,  0.750000000000000 ]
    mass: 132.905452
    reduced_to: 25
  - symbol: Cs # 30
    coordinates: [  0.500000000000000,  0.250000000000000,  0.750000000000000 ]
    mass: 132.905452
    reduced_to: 25
  - symbol: Cs # 31
    coordinates: [  0.000000000000000,  0.750000000000000,  0.750000000000000 ]
    mass: 132.905452
    reduced_to: 25
  - symbol: Cs # 32
    coordinates: [  0.500000000000000,  0.750000000000000,  0.750000000000000 ]
    mass: 132.905452
    reduced_to: 25
  - symbol: I  # 33
    coordinates: [  0.000000000000000,  0.000000000000000,  0.250000000000000 ]
    mass: 126.904470
    reduced_to: 33
  - symbol: I  # 34
    coordinates: [  0.500000000000000,  0.000000000000000,  0.250000000000000 ]
    mass: 126.904470
    reduced_to: 33
  - symbol: I  # 35
    coordinates: [  0.000000000000000,  0.500000000000000,  0.250000000000000 ]
    mass: 126.904470
    reduced_to: 33
  - symbol: I  # 36
    coordinates: [  0.500000000000000,  0.500000000000000,  0.250000000000000 ]
    mass: 126.904470
    reduced_to: 33
  - symbol: I  # 37
    coordinates: [  0.000000000000000,  0.000000000000000,  0.750000000000000 ]
    mass: 126.904470
    reduced_to: 33
  - symbol: I  # 38
    coordinates: [  0.500000000000000,  0.000000000000000,  0.750000000000000 ]
    mass: 126.904470
    reduced_to: 33
  - symbol: I  # 39
    coordinates: [  0.000000000000000,  0.500000000000000,  0.750000000000000 ]
    mass: 126.904470
    reduced_to: 33
  - symbol: I  # 40
    coordinates: [  0.500000000000000,  0.500000000000000,  0.750000000000000 ]
    mass: 126.904470
    reduced_to: 33
  - symbol: I  # 41
    coordinates: [  0.250000000000000,  0.000000000000000,  0.000000000000000 ]
    mass: 126.904470
    reduced_to: 41
  - symbol: I  # 42
    coordinates: [  0.750000000000000,  0.000000000000000,  0.000000000000000 ]
    mass: 126.904470
    reduced_to: 41
  - symbol: I  # 43
    coordinates: [  0.250000000000000,  0.500000000000000,  0.000000000000000 ]
    mass: 126.904470
    reduced_to: 41
  - symbol: I  # 44
    coordinates: [  0.750000000000000,  0.500000000000000,  0.000000000000000 ]
    mass: 126.904470
    reduced_to: 41
  - symbol: I  # 45
    coordinates: [  0.250000000000000,  0.000000000000000,  0.500000000000000 ]
    mass: 126.904470
    reduced_to: 41
  - symbol: I  # 46
    coordinates: [  0.750000000000000,  0.000000000000000,  0.500000000000000 ]
    mass: 126.904470
    reduced_to: 41
  - symbol: I  # 47
    coordinates: [  0.250000000000000,  0.500000000000000,  0.500000000000000 ]
    mass: 126.904470
    reduced_to: 41
  - symbol: I  # 48
    coordinates: [  0.750000000000000,  0.500000000000000,  0.500000000000000 ]
    mass: 126.904470
    reduced_to: 41
  - symbol: I  # 49
    coordinates: [  0.000000000000000,  0.250000000000000,  0.000000000000000 ]
    mass: 126.904470
    reduced_to: 49
  - symbol: I  # 50
    coordinates: [  0.500000000000000,  0.250000000000000,  0.000000000000000 ]
    mass: 126.904470
    reduced_to: 49
  - symbol: I  # 51
    coordinates: [  0.000000000000000,  0.750000000000000,  0.000000000000000 ]
    mass: 126.904470
    reduced_to: 49
  - symbol: I  # 52
    coordinates: [  0.500000000000000,  0.750000000000000,  0.000000000000000 ]
    mass: 126.904470
    reduced_to: 49
  - symbol: I  # 53
    coordinates: [  0.000000000000000,  0.250000000000000,  0.500000000000000 ]
    mass: 126.904470
    reduced_to: 49
  - symbol: I  # 54
    coordinates: [  0.500000000000000,  0.250000000000000,  0.500000000000000 ]
    mass: 126.904470
    reduced_to: 49
  - symbol: I  # 55
    coordinates: [  0.000000000000000,  0.750000000000000,  0.500000000000000 ]
    mass: 126.904470
    reduced_to: 49
  - symbol: I  # 56
    coordinates: [  0.500000000000000,  0.750000000000000,  0.500000000000000 ]
    mass: 126.904470
    reduced_to: 49
  - symbol: I  # 57
    coordinates: [  0.250000000000000,  0.250000000000000,  0.250000000000000 ]
    mass: 126.904470
    reduced_to: 57
  - symbol: I  # 58
    coordinates: [  0.750000000000000,  0.250000000000000,  0.250000000000000 ]
    mass: 126.904470
    reduced_to: 57
  - symbol: I  # 59
    coordinates: [  0.250000000000000,  0.750000000000000,  0.250000000000000 ]
    mass: 126.904470
    reduced_to: 57
  - symbol: I  # 60
    coordinates: [  0.750000000000000,  0.750000000000000,  0.250000000000000 ]
    mass: 126.904470
    reduced_to: 57
  - symbol: I  # 61
    coordinates: [  0.250000000000000,  0.250000000000000,  0.750000000000000 ]
    mass: 126.904470
    reduced_to: 57
  - symbol: I  # 62
    coordinates: [  0.750000000000000,  0.250000000000000,  0.750000000000000 ]
    mass: 126.904470
    reduced_to: 57
  - symbol: I  # 63
    coordinates: [  0.250000000000000,  0.750000000000000,  0.750000000000000 ]
    mass: 126.904470
    reduced_to: 57
  - symbol: I  # 64
    coordinates: [  0.750000000000000,  0.750000000000000,  0.750000000000000 ]
    mass: 126.904470
    reduced_to: 57

displacement_pairs:
- atom:    1
  displacement:
    [  0.0300000000000000,  0.0000000000479126,  0.0000000000507388 ]
  displacement_id: 1
  paired_with:
  - atom:    1
    pair_distance: 0.00000000
    displacements:
    - [  0.0212132034365956,  0.0212132034345972,  0.0000000000697571 ]
    - [ -0.0212132034365956, -0.0212132034345972, -0.0000000000697571 ]
    displacement_ids: [ 3, 4 ]
  - atom:    2
    pair_distance: 7.84875017
    displacements:
    - [  0.0212132034365956,  0.0212132034345972,  0.0000000000697571 ]
    - [ -0.0212132034365956, -0.0212132034345972, -0.0000000000697571 ]
    displacement_ids: [ 5, 6 ]
  - atom:    3
    pair_distance: 7.84875017
    displacements:
    - [  0.0173205080756888,  0.0173205080756888,  0.0173205080756888 ]
    - [ -0.0173205080756888, -0.0173205080756888, -0.0173205080756888 ]
    displacement_ids: [ 7, 8 ]
  - atom:    4
    pair_distance: 11.09980896
    displacements:
    - [  0.0173205080756888,  0.0173205080756888,  0.0173205080756888 ]
    - [ -0.0173205080756888, -0.0173205080756888, -0.0173205080756888 ]
    displacement_ids: [ 9, 10 ]
  - atom:    7
    pair_distance: 11.09980896
    displacements:
    - [  0.0212132034365956,  0.0212132034345972,  0.0000000000697571 ]
    - [ -0.0212132034365956, -0.0212132034345972, -0.0000000000697571 ]
    displacement_ids: [ 11, 12 ]
  - atom:    8
    pair_distance: 13.59443412
    displacements:
    - [  0.0212132034365956,  0.0212132034345972,  0.0000000000697571 ]
    - [ -0.0212132034365956, -0.0212132034345972, -0.0000000000697571 ]
    displacement_ids: [ 13, 14 ]
  - atom:    9
    pair_distance: 5.54990448
    displacements:
    - [  0.0212132034345972,  0.0000000000697571,  0.0212132034365956 ]
    - [ -0.0212132034345972, -0.0000000000697571, -0.0212132034365956 ]
    - [  0.0000000000507388,  0.0300000000000000,  0.0000000000479126 ]
    - [ -0.0000000000507388, -0.0300000000000000, -0.0000000000479126 ]
    displacement_ids: [ 15, 16, 17, 18 ]
  - atom:   10
    pair_distance: 5.54990446
    displacements:
    - [  0.0212132034345972,  0.0000000000697571,  0.0212132034365956 ]
    - [ -0.0212132034345972, -0.0000000000697571, -0.0212132034365956 ]
    - [  0.0000000000507388,  0.0300000000000000,  0.0000000000479126 ]
    - [ -0.0000000000507388, -0.0300000000000000, -0.0000000000479126 ]
    displacement_ids: [ 19, 20, 21, 22 ]
  - atom:   13
    pair_distance: 9.61271654
    displacements:
    - [  0.0212132034345972,  0.0000000000697571,  0.0212132034365956 ]
    - [ -0.0212132034345972, -0.0000000000697571, -0.0212132034365956 ]
    - [  0.0000000000507388,  0.0300000000000000,  0.0000000000479126 ]
    - [ -0.0000000000507388, -0.0300000000000000, -0.0000000000479126 ]
    displacement_ids: [ 23, 24, 25, 26 ]
  - atom:   14
    pair_distance: 9.61271651
    displacements:
    - [  0.0212132034345972,  0.0000000000697571,  0.0212132034365956 ]
    - [ -0.0212132034345972, -0.0000000000697571, -0.0212132034365956 ]
    - [  0.0000000000507388,  0.0300000000000000,  0.0000000000479126 ]
    - [ -0.0000000000507388, -0.0300000000000000, -0.0000000000479126 ]
    displacement_ids: [ 27, 28, 29, 30 ]
  - atom:   25
    pair_distance: 5.54990448
    displacements:
    - [  0.0000000000507388,  0.0300000000000000,  0.0000000000479126 ]
    - [ -0.0000000000507388, -0.0300000000000000, -0.0000000000479126 ]
    - [  0.0300000000000000,  0.0000000000479126,  0.0000000000507388 ]
    - [ -0.0300000000000000, -0.0000000000479126, -0.0000000000507388 ]
    displacement_ids: [ 31, 32, 33, 34 ]
  - atom:   26
    pair_distance: 9.61271654
    displacements:
    - [  0.0000000000507388,  0.0300000000000000,  0.0000000000479126 ]
    - [ -0.0000000000507388, -0.0300000000000000, -0.0000000000479126 ]
    - [  0.0300000000000000,  0.0000000000479126,  0.0000000000507388 ]
    - [ -0.0300000000000000, -0.0000000000479126, -0.0000000000507388 ]
    displacement_ids: [ 35, 36, 37, 38 ]
  - atom:   33
    pair_distance: 3.92437509
    displacements:
    - [  0.0212132034365956,  0.0212132034345972,  0.0000000000697571 ]
    - [ -0.0212132034365956, -0.0212132034345972, -0.0000000000697571 ]
    - [  0.0000000000479126,  0.0000000000507388,  0.0300000000000000 ]
    - [ -0.0000000000479126, -0.0000000000507388, -0.0300000000000000 ]
    displacement_ids: [ 39, 40, 41, 42 ]
  - atom:   34
    pair_distance: 8.77516947
    displacements:
    - [  0.0212132034365956,  0.0212132034345972,  0.0000000000697571 ]
    - [ -0.0212132034365956, -0.0212132034345972, -0.0000000000697571 ]
    - [  0.0000000000479126,  0.0000000000507388,  0.0300000000000000 ]
    - [ -0.0000000000479126, -0.0000000000507388, -0.0300000000000000 ]
    displacement_ids: [ 43, 44, 45, 46 ]
  - atom:   35
    pair_distance: 8.77516947
    displacements:
    - [  0.0212132034365956,  0.0212132034345972,  0.0000000000697571 ]
    - [ -0.0212132034365956, -0.0212132034345972, -0.0000000000697571 ]
    - [  0.0000000000479126,  0.0000000000507388,  0.0300000000000000 ]
    - [ -0.0000000000479126, -0.0000000000507388, -0.0300000000000000 ]
    displacement_ids: [ 47, 48, 49, 50 ]
  - atom:   36
    pair_distance: 11.77312529
    displacements:
    - [  0.0212132034365956,  0.0212132034345972,  0.0000000000697571 ]
    - [ -0.0212132034365956, -0.0212132034345972, -0.0000000000697571 ]
    - [  0.0000000000479126,  0.0000000000507388,  0.0300000000000000 ]
    - [ -0.0000000000479126, -0.0000000000507388, -0.0300000000000000 ]
    displacement_ids: [ 51, 52, 53, 54 ]
  - atom:   41
    pair_distance: 3.92437509
    displacements:
    - [  0.0212132034365956,  0.0212132034345972,  0.0000000000697571 ]
    - [ -0.0212132034365956, -0.0212132034345972, -0.0000000000697571 ]
    displacement_ids: [ 55, 56 ]
  - atom:   42
    pair_distance: 3.92437509
    displacements:
    - [  0.0212132034365956,  0.0212132034345972,  0.0000000000697571 ]
    - [ -0.0212132034365956, -0.0212132034345972, -0.0000000000697571 ]
    displacement_ids: [ 57, 58 ]
  - atom:   43
    pair_distance: 8.77516947
    displacements:
    - [  0.0173205080756888,  0.0173205080756888,  0.0173205080756888 ]
    - [ -0.0173205080756888, -0.0173205080756888, -0.0173205080756888 ]
    displacement_ids: [ 59, 60 ]
  - atom:   44
    pair_distance: 8.77516945
    displacements:
    - [  0.0173205080756888,  0.0173205080756888,  0.0173205080756888 ]
    - [ -0.0173205080756888, -0.0173205080756888, -0.0173205080756888 ]
    displacement_ids: [ 61, 62 ]
  - atom:   47
    pair_distance: 11.77312529
    displacements:
    - [  0.0212132034365956,  0.0212132034345972,  0.0000000000697571 ]
    - [ -0.0212132034365956, -0.0212132034345972, -0.0000000000697571 ]
    displacement_ids: [ 63, 64 ]
  - atom:   48