# epsilon and Z* of atoms 1 5
  14.85603148    0.00000000    0.00000000    0.00000000   14.85603148    0.00000000    0.00000000    0.00000000   14.85603148 
   2.28576956    0.00000000    0.00000000    0.00000000    2.28576956    0.00000000    0.00000000    0.00000000    2.28576956 
  -2.28576956    0.00000000    0.00000000    0.00000000   -2.28576956    0.00000000    0.00000000    0.00000000   -2.28576956 
